100
Step 0
Ar 6.26514230 9.44713662 8.51654266
Ar 3.24888730 0.78231443 9.87966331
Ar 1.75474486 3.13741093 2.94290122
Ar 3.63024948 5.60184175 8.14294090
Ar 7.68564452 4.22977822 6.78703185
Ar 9.88714339 1.68367550 2.81446567
Ar 5.82983641 8.56725013 2.72107523
Ar 7.81853694 9.40398528 7.54344814
Ar 3.05347642 7.92626224 2.10497174
Ar 7.65490844 1.50203140 6.75255437
Ar 3.93339729 0.69034363 6.27141447
Ar 5.91457098 1.45640075 5.92399376
Ar 1.23808177 7.49335943 8.32799962
Ar 9.29874826 3.54860988 3.72672581
Ar 3.94806822 9.95875374 7.65994451
Ar 9.63807962 8.66182169 4.73887251
Ar 9.03066863 8.93006579 3.98333842
Ar 6.12325297 4.92165802 6.28401148
Ar 8.53794966 2.85211926 5.20741284
Ar 1.99840526 1.95289497 8.29706151
Ar 0.42931793 4.90507033 9.00006184
Ar 0.99576355 9.33109061 5.88427193
Ar 3.84686910 1.06292768 8.14200372
Ar 4.87649035 9.43638121 7.40156750
Ar 9.83026143 8.96721051 0.16945748
Ar 3.22976125 2.61090913 9.32210675
Ar 8.71254391 9.71749712 3.57345357
Ar 0.73562444 1.39957751 6.48816819
Ar 2.39068140 0.81089069 6.25914994
Ar 7.69093609 0.24546663 1.57724633
Ar 8.58452729 1.52234797 4.09647366
Ar 8.28549621 5.68635088 0.65552870
Ar 5.25385017 2.29459346 8.25561451
Ar 0.97204241 4.29618840 6.23874251
Ar 0.50016534 4.20194168 1.51410303
Ar 3.23447012 7.66960294 9.97360785
Ar 2.34231773 1.53586437 3.56862532
Ar 2.31830938 2.84166743 2.93748796
Ar 7.64102506 7.53983707 4.62278201
Ar 8.44743539 0.96198630 1.50692100
Ar 3.92141571 9.38658842 8.16535552
Ar 7.85465662 9.41489080 8.44471533
Ar 0.64242838 0.78739318 9.97782371
Ar 2.75613284 1.91322744 5.47685378
Ar 9.33456005 2.07286206 2.56103803
Ar 2.35567913 4.29127273 0.74574035
Ar 5.48827318 8.39070397 4.97343345
Ar 8.87088559 9.89797871 9.65239085
Ar 8.83903027 3.33994635 4.75709016
Ar 4.21519054 7.65833190 8.65146723
Ar 3.15253636 6.69652532 8.18752246
Ar 3.17204407 3.35723171 4.71621544
Ar 1.87391657 2.69860929 1.62799368
Ar 4.15731651 3.28637819 7.78465484
Ar 7.95161379 0.14058753 8.90131488
Ar 7.87557587 4.72687955 4.33233938
Ar 3.89014363 5.34433564 8.98764459
Ar 7.64380352 6.39092270 8.11970046
Ar 5.85787758 4.71572275 9.37761840
Ar 0.17324009 2.11875884 2.40745197
Ar 6.71377656 5.35070079 9.33847338
Ar 0.64966928 0.07071128 6.34618384
Ar 8.25396832 8.69218362 0.76619703
Ar 6.99008341 9.69963390 6.26944799
Ar 7.42039411 6.80914525 8.70251865
Ar 5.94920823 1.56608650 1.01209439
Ar 8.39790062 6.86362241 2.17914025
Ar 8.72716912 0.80501282 8.05153923
Ar 3.98224790 7.33769251 2.67278485
Ar 9.56099679 4.22676723 1.22361126
Ar 4.71032466 4.54620023 6.93550439
Ar 3.28773149 5.38162973 1.29150447
Ar 6.53551388 6.02844201 7.16131126
Ar 6.55458284 6.87641821 6.98732497
Ar 5.82635222 1.81012871 5.35049725
Ar 7.15795938 2.86768554 5.82475415
Ar 9.41921790 9.27352583 7.31834772
Ar 3.78443485 9.88909115 1.74341186
Ar 4.24422049 1.20431188 2.59007452
Ar 3.47442189 5.39659362 4.59082635
Ar 4.35662296 0.50026286 8.84009231
Ar 7.62605085 0.21244789 7.74035047
Ar 4.34903968 0.26048185 0.28196252
Ar 3.10695249 3.36739395 9.19015541
Ar 5.73377800 2.58577974 5.41372494
Ar 4.72029737 7.12669136 8.45503689
Ar 7.95259772 7.23717685 2.96265623
Ar 9.38658485 1.32229221 3.32258235
Ar 6.02487501 4.24855748 7.68202576
Ar 6.20748332 6.26129240 4.58202435
Ar 7.36028914 3.62512559 4.63065809
Ar 6.95191722 3.34261894 1.58625795
Ar 0.19328329 2.43332835 3.45317079
Ar 2.51179514 8.40137495 9.72338075
Ar 6.61410207 9.46063422 1.29061360
Ar 1.02740472 6.66125345 7.31716057
Ar 6.46012371 7.70729890 4.94112318
Ar 6.86806086 8.23867993 8.10048561
Ar 8.35198518 2.43678514 6.06516998
Ar 8.00054790 2.03570161 8.81380498
100
Step 10
Ar 6.26104202 9.43777385 8.52646942
Ar 3.24759689 0.77608155 9.87575867
Ar 1.37622932 3.32586214 2.92689479
Ar 3.62552043 5.58528759 8.12525398
Ar 7.67739536 4.24231275 6.77580918
Ar 9.91790822 1.50249251 2.93919776
Ar 5.81432318 8.56647511 2.70396479
Ar 7.83325533 9.37665330 7.52618947
Ar 3.05572847 7.93538716 2.09130231
Ar 7.64630642 1.50976169 6.75741087
Ar 3.92490276 0.68013938 6.25721320
Ar 5.94456085 1.35557910 6.08698053
Ar 1.23917186 7.49633582 8.33337136
Ar 9.30983187 3.54454361 3.72159274
Ar 3.94640154 0.00550674 7.62048854
Ar 9.64002820 8.66118598 4.74348043
Ar 9.02670670 8.93044892 3.98378413
Ar 6.83805647 3.84549256 9.23247430
Ar 8.50229324 2.78535423 5.26654333
Ar 1.99668406 1.95859310 8.28658298
Ar 0.43114177 4.89843560 9.01904189
Ar 0.98134739 9.34177898 5.87317757
Ar 3.83376554 1.04868739 8.14958758
Ar 4.88659537 9.42154035 7.39809910
Ar 9.84276305 8.99151005 0.17003705
Ar 3.21865863 2.56723708 9.33093395
Ar 8.71586649 9.71627143 3.55564996
Ar 0.74723989 1.39340086 6.50034139
Ar 2.40587186 0.79404834 6.26981965
Ar 7.70876024 0.24837846 1.57134508
Ar 8.57354760 1.52849931 4.10565505
Ar 8.29669044 5.69257797 0.64512162
Ar 5.24989649 2.29711187 8.27051217
Ar 0.97289005 4.31683812 6.24571962
Ar 0.49971573 4.18347369 1.50471450
Ar 3.22300973 7.66117562 9.96442696
Ar 2.33146185 1.50890195 3.56030385
Ar 2.67391389 2.62692003 2.93468742
Ar 7.64208080 7.53761028 4.61910288
Ar 8.44054283 0.94300339 1.48434315
Ar 3.91951003 9.32961996 8.21395373
Ar 7.83820048 9.40390928 8.42419003
Ar 0.63568717 0.78020245 9.98602054
Ar 2.75832121 1.90307235 5.45856095
Ar 9.26037532 2.14353970 2.54881845
Ar 2.34712627 4.28273380 0.75384442
Ar 5.47030599 8.38848668 4.94661552
Ar 8.85640014 9.88647548 9.65519246
Ar 8.88668438 3.41618993 4.69728379
Ar 4.17806425 7.69290623 8.66862083
Ar 3.15413388 6.71172405 8.18581991
Ar 3.15847899 3.35295454 4.70582786
Ar 1.88682872 2.69759731 1.62575813
Ar 4.16492794 3.30031711 7.77358654
Ar 7.94177525 0.13701975 8.91394219
Ar 7.86356783 4.72591875 4.33641378
Ar 3.88811520 5.33069896 8.98911874
Ar 7.67357690 6.34858418 8.06495605
Ar 5.83747081 4.72111665 9.36389369
Ar 0.29914923 2.28211335 2.26253275
Ar 6.73026009 5.37609649 9.35120345
Ar 0.63923086 0.07118039 6.33751586
Ar 8.24403245 8.69340165 0.76486323
Ar 6.98437275 9.69946320 6.26843938
Ar 7.40327422 6.84700867 8.76032007
Ar 5.95687986 1.56707517 1.02159851
Ar 8.40967229 6.86321133 2.17454195
Ar 8.72413697 0.78881252 8.05189027
Ar 3.98125343 7.34339606 2.66624062
Ar 9.55019343 4.23087598 1.22439254
Ar 4.71599938 4.55193918 6.95392463
Ar 3.29319952 5.36529100 1.30682333
Ar 6.52917416 6.01921539 7.15453074
Ar 6.54548217 6.88530092 6.96709045
Ar 5.80479559 1.85705761 5.17434432
Ar 7.16906142 2.85355818 5.81402731
Ar 9.41757370 9.27222777 7.31081412
Ar 3.79290588 9.88900701 1.74475013
Ar 4.24690678 1.20630982 2.58982643
Ar 3.45013419 5.39143054 4.58575315
Ar 4.36784685 0.49563837 8.85113151
Ar 7.60598586 0.22198121 7.73941785
Ar 4.36335138 0.26041939 0.29232023
Ar 3.08421857 3.40929539 9.17919221
Ar 5.70409631 2.65207306 5.41682501
Ar 4.74637195 7.07504159 8.42830592
Ar 7.95529896 7.23409483 2.95840262
Ar 9.32853676 1.27180386 3.37722276
Ar 5.67360999 1.89166610 2.59215774
Ar 5.75697800 9.61758458 6.80262644
Ar 7.36323280 3.64722632 4.62477180
Ar 6.94971602 3.34820662 1.59399939
Ar 0.19125909 2.42620392 3.44880854
Ar 2.52088509 8.40396718 9.73863577
Ar 6.62051743 9.45725015 1.27747091
Ar 1.02854176 6.65110578 7.29904629
Ar 6.57325884 7.78478450 4.83910674
Ar 6.86579937 8.24696392 8.09340497
Ar 8.35288383 2.43476792 6.08484080
Ar 7.98584243 2.03045144 8.81136146
100
Step 20
Ar 6.25728179 9.43030808 8.53499185
Ar 3.24658147 0.76976540 9.87182073
Ar 0.99225541 3.51710225 2.91123934
Ar 3.61871110 5.57091658 8.10092763
Ar 7.66912750 4.25480212 6.76453755
Ar 0.05281549 1.34728239 2.99989133
Ar 5.79881913 8.56570909 2.68684188
Ar 7.85142770 9.33544204 7.49178879
Ar 3.05816550 7.94440785 2.07772536
Ar 7.63777256 1.51759280 6.76219196
Ar 3.91632553 0.66990233 6.24313926
Ar 5.97705305 1.24516188 6.26596487
Ar 1.24025389 7.49919271 8.33860351
Ar 9.32123270 3.54037419 3.71582917
Ar 3.94557945 0.07088295 7.56499833
Ar 9.64311006 8.66008309 4.74949766
Ar 9.02359906 8.92625491 3.98557970
Ar 3.54228654 0.75875400 3.13437967
Ar 8.45843987 2.70727433 5.32772044
Ar 1.99502415 1.96430330 8.27613450
Ar 0.43296774 4.89180183 9.03802686
Ar 0.96991420 9.34607267 5.85800292
Ar 3.82015671 1.03481147 8.15640488
Ar 4.89356974 9.40432467 7.39755382
Ar 9.85511882 9.01591825 0.17057139
Ar 3.21271254 2.49130746 9.34546070
Ar 8.71721683 9.72018658 3.53509832
Ar 0.75887880 1.38700139 6.51248451
Ar 2.42114876 0.77731521 6.28041770
Ar 7.72507904 0.24985510 1.56555760
Ar 8.56204051 1.53498087 4.11538787
Ar 5.47065352 7.71953943 8.76704444
Ar 4.49773051 4.36500327 8.10960162
Ar 0.97373662 4.33748613 6.25269625
Ar 0.50199625 4.16483210 1.49614770
Ar 3.21220704 7.65209854 9.95536493
Ar 2.32065339 1.48213016 3.55188809
Ar 3.03482906 2.40914144 2.93187806
Ar 7.64373923 7.53513519 4.61533580
Ar 8.43505787 0.92534479 1.46162927
Ar 3.91706566 9.25444136 8.27866370
Ar 7.81982425 9.37904780 8.40824050
Ar 0.62892330 0.77298969 9.99421599
Ar 2.76049356 1.89282040 5.44032947
Ar 9.17225787 2.22416543 2.53074507
Ar 2.33861826 4.27422431 0.76198324
Ar 5.45244324 8.38624901 4.91965332
Ar 8.84179286 9.87490641 9.65787178
Ar 8.94425713 3.50920642 4.62271935
Ar 4.11750625 7.75249020 8.69534793
Ar 3.15596357 6.72678121 8.18418920
Ar 3.14489437 3.34862739 4.69544499
Ar 1.89970991 2.69664485 1.62371066
Ar 4.16979540 3.31333935 7.76073888
Ar 7.93411503 0.14760598 8.93563321
Ar 7.85150887 4.72468974 4.34055667
Ar 3.88810560 5.31512566 8.99721631
Ar 7.71178998 6.29030213 7.98796612
Ar 5.81698669 4.72640264 9.35016843
Ar 0.43334202 2.45583712 2.10805867
Ar 6.74687935 5.40159789 9.36390226
Ar 0.62579140 0.07824600 6.33297132
Ar 8.23411931 8.69470232 0.76350337
Ar 6.97867673 9.69930335 6.26758673
Ar 7.37752391 6.90078501 8.84025385
Ar 5.96458737 1.56790802 1.03103244
Ar 8.42306780 6.86146269 2.16711432
Ar 8.72070027 0.77235225 8.05233648
Ar 3.98008758 7.34921792 2.65958267
Ar 9.53668959 4.23511710 1.22438007
Ar 4.72163826 4.55762766 6.97241560
Ar 3.29860768 5.34888666 1.32210081
Ar 6.52260432 5.99314626 7.15147307
Ar 6.53672771 6.91106519 6.94327427
Ar 5.78644819 1.86832353 4.97139558
Ar 4.27383534 0.54531420 5.29317943
Ar 9.41584191 9.27099469 7.30329395
Ar 3.80141996 9.88898929 1.74604522
Ar 4.24958275 1.20826977 2.58954607
Ar 3.42584554 5.38625256 4.58068122
Ar 4.37945297 0.49025799 8.86280712
Ar 7.58252695 0.24528385 7.74194606
Ar 4.37744900 0.26045373 0.30253275
Ar 3.05633550 3.48340778 9.16245872
Ar 5.66886912 2.76361079 5.43077371
Ar 4.79566551 6.99831795 8.39199966
Ar 7.95636216 7.23236264 2.95701190
Ar 9.17269352 1.17470359 3.51097081
Ar 5.32530414 9.53731715 7.49991586
Ar 5.66395201 3.07806037 0.76549803
Ar 7.36642260 3.66938015 4.61899145
Ar 6.94748848 3.35378976 1.60172118
Ar 0.18907004 2.41931230 3.44429513
Ar 2.52938248 8.40719913 9.75367609
Ar 6.63040114 9.45203771 1.26090207
Ar 1.02971522 6.64107705 7.28108467
Ar 6.83002318 7.97784449 4.60094407
Ar 6.86359021 8.25544030 8.08636806
Ar 8.35117864 2.42722150 6.11780912
Ar 7.97115877 2.02510660 8.80886823
100
Step 30
Ar 9.64279715 1.27237283 9.88274479
Ar 3.24578465 0.76314491 9.86783504
Ar 0.61349612 3.71648179 2.91119106
Ar 2.61820842 5.86514663 8.20314845
Ar 7.66085836 4.26729785 6.75320696
Ar 0.18893231 1.19091447 3.05224502
Ar 5.78332960 8.56495521 2.66971261
Ar 7.87097603 9.29006690 7.44626836
Ar 3.06078562 7.95332317 2.06424325
Ar 7.62931903 1.52548562 6.76691630
Ar 3.90882231 0.66038997 6.23185169
Ar 6.00955481 1.13478035 6.44480863
Ar 1.24132861 7.50194257 8.34370519
Ar 9.33414869 3.53607583 3.70650502
Ar 1.61561481 5.32810042 8.12992765
Ar 9.51550178 8.61719180 4.64446652
Ar 9.02082651 8.91868176 3.98814921
Ar 8.75755235 2.64572376 7.89029538
Ar 5.50112311 0.30549129 4.69259637
Ar 1.99342764 1.97002272 8.26572414
Ar 0.43815997 4.88753909 9.05906890
Ar 0.96029699 9.34491608 5.83920083
Ar 3.80611773 1.02133977 8.16278131
Ar 5.02289321 6.33146936 5.08436275
Ar 9.86732912 9.04043586 0.17105873
Ar 3.20709854 2.41321983 9.35991888
Ar 8.71710980 9.72810233 3.51235978
Ar 0.77052990 1.38037610 6.52459447
Ar 2.43652688 0.76066683 6.29095212
Ar 7.73894024 0.24914517 1.56001499
Ar 8.54372188 1.54634796 4.13198399
Ar 8.36453681 7.79150073 9.11412097
Ar 4.24545380 7.50587583 7.70480879
Ar 0.97458063 4.35812340 6.25967180
Ar 0.50622435 4.14598221 1.48819253
Ar 3.20219266 7.64221348 9.94642779
Ar 2.30994001 1.45551605 3.54333191
Ar 3.37121466 2.19814190 2.92602195
Ar 7.65309563 7.52759568 4.61228902
Ar 8.43186909 0.90985768 1.43860084
Ar 3.91474155 9.17856157 8.34406864
Ar 7.80016043 9.34838178 8.39819251
Ar 0.62213775 0.76575174 0.00240906
Ar 2.76255304 1.88217329 5.42212276
Ar 9.08451549 2.30465406 2.51292204
Ar 6.51007238 6.52672790 7.01501038
Ar 5.43457671 8.38401868 4.89281086
Ar 8.82707969 9.86327520 9.66044594
Ar 8.99979644 3.60249563 4.55123873
Ar 4.05566332 7.81337811 8.72260641
Ar 3.53599721 8.77612345 7.89487294
Ar 3.13130026 3.34428262 4.68501453
Ar 1.91248855 2.69573394 1.62175719
Ar 4.16569616 3.32237961 7.74190399
Ar 7.92756654 0.16446097 8.96128390
Ar 7.83942284 4.72321317 4.34476362
Ar 3.88908768 5.29858164 9.00890086
Ar 7.75029826 6.23121561 7.91036014
Ar 5.79656400 4.73175379 9.33642661
Ar 0.56727748 2.62663854 1.95274749
Ar 6.76343961 5.42709635 9.37655652
Ar 0.60973789 0.09108382 6.33209458
Ar 8.22423219 8.69608940 0.76214144
Ar 6.97302720 9.69917668 6.26687773
Ar 7.35144281 6.95507751 8.92080984
Ar 5.97229193 1.56875786 1.04045731
Ar 8.43811109 6.85867621 2.15744340
Ar 8.71686605 0.75565437 8.05287242
Ar 3.97901464 7.35590889 2.65302916
Ar 4.61697520 9.52591033 6.69322180
Ar 4.72721544 4.56326832 6.99105724
Ar 3.30392393 5.33243907 1.33737041
Ar 6.51602734 5.95991301 7.15013106
Ar 6.52789255 6.94399566 6.91768858
Ar 5.76862442 1.87571881 4.76698152
Ar 9.77185424 0.46414606 9.64932369
Ar 9.41401466 9.26982413 7.29577837
Ar 3.80997460 9.88903770 1.74730958
Ar 4.25238703 1.21027740 2.58908670
Ar 3.40155771 5.38105979 4.57561202
Ar 4.39132774 0.48429651 8.87498768
Ar 7.55821230 0.27242461 7.74566523
Ar 1.61218287 5.90780192 4.87820066
Ar 3.02802283 3.56038914 9.14518326
Ar 5.63318745 2.87891415 5.44633431
Ar 4.84698809 6.92039255 8.35599289
Ar 7.95604225 7.23174350 2.95799266
Ar 9.01829983 1.07124826 3.64134367
Ar 5.05999287 6.82409144 9.26544929
Ar 6.07185274 5.16177141 4.84712687
Ar 7.36982501 3.69164292 4.61321789
Ar 6.94519212 3.35936811 1.60943748
Ar 0.18620138 2.41344685 3.43924776
Ar 2.53716834 8.41123616 9.76847817
Ar 6.67024596 9.42963390 1.21312401
Ar 1.03091982 6.63116083 7.26325962
Ar 7.09608929 8.16356897 4.37664249
Ar 6.86128867 8.26544635 8.07984443
Ar 0.60421789 0.69754112 6.51177419
Ar 7.95650227 2.01966638 8.80632474
100
Step 40
Ar 7.79865430 7.35345910 4.11433099
Ar 3.24607350 0.76899777 9.85757595
Ar 9.26889496 3.86482567 2.09469388
Ar 1.18555056 6.29631227 8.36647394
Ar 7.65257640 4.27980663 6.74186518
Ar 0.32208127 1.03274869 3.10157743
Ar 5.76784873 8.56420141 2.65258562
Ar 7.89106656 9.24378513 7.39517695
Ar 3.06359167 7.96212550 2.05085975
Ar 7.62085793 1.53331725 6.77168526
Ar 5.49661621 3.51644263 4.91873544
Ar 6.04239440 1.02465140 6.62349501
Ar 1.24265301 7.50444172 8.34842957
Ar 1.36375405 9.88026420 1.54278406
Ar 2.84883982 2.11530167 3.58267557
Ar 9.23073750 8.47090485 4.43338270
Ar 8.97910528 8.95072994 3.93000913
Ar 3.36364331 3.76866429 0.18196129
Ar 1.81489139 7.32128192 3.88735520
Ar 1.99188931 1.97573978 8.25534148
Ar 0.44373310 4.88354866 9.08032412
Ar 0.95359852 9.33733106 5.81591382
Ar 3.79173014 1.00846447 8.16921895
Ar 1.97219917 6.33983899 3.20246787
Ar 9.87955888 9.06494413 0.17137497
Ar 1.84403513 5.93182608 5.68800130
Ar 8.71686356 9.74005837 3.48851867
Ar 0.79258228 1.41637490 6.53746898
Ar 2.45197930 0.74411683 6.30141825
Ar 7.74853601 0.24578524 1.55568701
Ar 8.50373849 1.58066457 4.17108672
Ar 0.58832169 3.00595546 4.43988705
Ar 4.42295838 0.50653087 7.24185469
Ar 9.57038256 8.56270150 3.37640470
Ar 0.51072679 4.12697988 1.48047190
Ar 3.19304577 7.63138649 9.93759919
Ar 2.29927159 1.42901457 3.53454154
Ar 3.60990697 2.01472203 2.90774274
Ar 7.67298699 7.50810902 4.61330131
Ar 8.43197120 0.89762206 1.41514353
Ar 3.93216986 9.12361620 8.43283705
Ar 7.77975037 9.31593362 8.39199476
Ar 0.61571225 0.75861614 0.01074940
Ar 3.85185432 6.43546772 1.11250210
Ar 8.99699129 2.38508364 2.49527861
Ar 6.23698784 0.27720132 4.69468452
Ar 5.41677430 8.38185704 4.86602105
Ar 8.62412799 9.67937773 9.71066180
Ar 9.04922047 3.69695192 4.49044399
Ar 3.99386658 7.87427804 8.74987124
Ar 5.53755730 1.96731753 5.69519097
Ar 9.76578525 1.54117436 0.46107097
Ar 1.92508971 2.69483992 1.61986837
Ar 4.16833132 3.33643318 7.74685396
Ar 7.92156571 0.18355117 8.98814888
Ar 7.82732616 4.72154650 4.34901412
Ar 3.89128943 5.28432011 9.02448668
Ar 7.78858934 6.17223405 7.83283735
Ar 5.78122641 4.74006592 9.32859025
Ar 0.70107354 2.79320443 1.79580383
Ar 6.75579824 5.48640936 9.40236982
Ar 0.59197425 9.93892253 6.28489635
Ar 8.21435569 8.69758513 0.76076991
Ar 2.10762351 0.30305332 1.20847023
Ar 7.32564060 7.00906222 9.00117934
Ar 5.97972138 1.56933160 1.05081087
Ar 8.45481998 6.85521314 2.14626551
Ar 8.57966974 0.89813648 7.84610124
Ar 3.97991870 7.36949539 2.64844853
Ar 5.74361401 0.16029431 8.48906491
Ar 4.73273345 4.56885770 7.00975942
Ar 3.30868138 5.31600926 1.35290574
Ar 6.53682926 5.36623453 7.30169444
Ar 2.57414745 4.44440833 5.39951822
Ar 5.75070528 1.88311899 4.56268021
Ar 7.85184022 5.54446206 8.61277426
Ar 9.75367899 9.24568774 7.43357041
Ar 3.77871828 9.87978982 1.72560048
Ar 4.25512867 1.21216119 2.58854389
Ar 6.10777641 2.53541853 3.45165347
Ar 4.40336647 0.47794386 8.88751757
Ar 7.53401784 0.30014637 7.74982855
Ar 5.32510855 6.13900067 6.56457408
Ar 1.68794309 9.41206546 0.35105665
Ar 5.59753320 2.99412576 5.46181180
Ar 4.90174848 6.84285283 8.32267959
Ar 7.95467180 7.23194495 2.96073049
Ar 8.88574533 0.94478364 3.74901584
Ar 5.72484146 0.93761263 8.03975012
Ar 6.45713732 7.29233736 8.89936636
Ar 7.37335148 3.71402835 4.60740827
Ar 6.94382382 3.35647036 1.61684301
Ar 0.18291584 2.40826079 3.43349140
Ar 2.54528219 8.41653640 9.78242145
Ar 6.71028063 9.40788784 1.16619774
Ar 1.03217769 6.62133602 7.24558871
Ar 7.67988466 8.53026724 4.36153944
Ar 6.85888137 8.27765489 8.07397386
Ar 6.22769822 1.52976688 7.43989791
Ar 7.94187859 2.01414047 8.80371270
100
Step 50
Ar 5.99411744 3.02006520 6.80089109
Ar 3.24685076 0.78022945 9.84456594
Ar 6.57058102 3.92207788 0.05639601
Ar 9.75387042 6.72945408 8.53053723
Ar 7.57794181 4.47034364 7.39089590
Ar 2.69150022 5.89458082 5.22596960
Ar 5.74931079 8.56520458 2.63344459
Ar 7.90994336 9.19661996 7.34153211
Ar 3.16111175 8.08766630 2.06707317
Ar 7.61240883 1.54105433 6.77660305
Ar 0.71372109 8.36958936 3.13222314
Ar 5.99080930 0.46830112 6.69208559
Ar 1.24624236 7.50555514 8.35071547
Ar 8.12751516 1.03359011 7.77928876
Ar 8.75364365 3.35388060 9.79047628
Ar 9.37747540 8.08222437 3.95554757
Ar 8.86611680 9.08103573 3.74649646
Ar 7.46480677 9.69824870 2.63226341
Ar 8.04945794 4.33123805 3.01206415
Ar 1.98986659 1.98054080 8.24649673
Ar 0.45615126 4.87395369 9.11157862
Ar 0.96511549 9.30367434 5.76754574
Ar 3.78907795 0.98967228 8.24445778
Ar 7.78952853 7.18185723 1.44225384
Ar 9.75319517 9.07905263 9.70390858
Ar 5.04494634 3.86411858 7.26577765
Ar 8.72031500 9.77608058 3.46191869
Ar 0.81465507 1.45224157 6.55032022
Ar 2.46740485 0.72763414 6.31186377
Ar 8.08070062 5.15345920 1.43880761
Ar 8.43241810 1.66537349 4.15451264
Ar 3.44855881 0.63095951 5.02297974
Ar 4.38816098 3.51257241 6.92979461
Ar 5.65221856 0.89940584 0.64807576
Ar 8.77821605 3.99920918 8.75456524
Ar 3.18480001 7.61957318 9.92892034
Ar 8.83806613 0.66214274 4.40603611
Ar 3.84694697 1.83358943 2.89044956
Ar 7.33782893 7.92377695 6.03142603
Ar 8.60744243 1.14559596 1.30205359
Ar 3.94968733 9.06857407 8.52159232
Ar 7.75446789 9.28210100 8.38789056
Ar 0.60703310 0.78989429 0.02767795
Ar 1.28377533 9.32400084 0.97501278
Ar 7.96901044 2.87208698 3.57297889
Ar 5.98665326 4.02185198 2.37795737
Ar 5.39903040 8.37975603 4.83926641
Ar 8.71098491 9.59598047 6.72549142
Ar 9.84670289 0.71122813 3.08769514
Ar 3.93205184 7.93527295 8.77716063
Ar 9.00469808 5.84919182 2.63950644
Ar 2.86175328 8.31209787 2.04182577
Ar 1.96874961 4.39973961 2.40618172
Ar 4.18041369 3.35849891 7.78710464
Ar 7.91560404 0.20354044 9.01517102
Ar 7.81619667 4.72094741 4.35106667
Ar 3.89379229 5.27063700 9.04096155
Ar 7.86086451 6.17607256 7.69983976
Ar 5.72988363 4.75766036 9.25403562
Ar 0.82794750 2.96110998 1.65265834
Ar 6.73107986 5.56976150 9.43664668
Ar 0.58998152 9.95634066 6.15068386
Ar 7.34269469 9.33485335 2.87195029
Ar 2.25883217 6.52788714 7.80958429
Ar 7.30104473 7.06252975 9.08149398
Ar 7.90557491 8.80832981 3.56454575
Ar 8.47321953 6.85171469 2.13312304
Ar 8.31877855 1.21498554 7.44052059
Ar 2.15928629 7.42575870 2.08791958
Ar 8.52667532 9.77369891 2.70893787
Ar 4.73803410 4.57440302 7.02845121
Ar 2.55694761 8.02119987 2.51382123
Ar 6.57916130 4.72538974 7.48237209
Ar 2.84781298 2.10200722 8.43061923
Ar 5.73244060 1.88978715 4.35813579
Ar 5.91760982 0.67102439 7.49338382
Ar 0.43491557 9.19857934 7.71661849
Ar 1.75050480 8.00535550 0.57982519
Ar 4.25954036 1.21165140 2.58691397
Ar 5.52033427 1.68804435 6.21821209
Ar 4.41555545 0.47128698 8.90031019
Ar 9.22437912 1.10388287 5.34904677
Ar 6.62821171 5.10224953 2.05655891
Ar 1.65671499 7.85550194 5.25120863
Ar 5.56399453 3.09890431 5.48807623
Ar 4.95648470 6.76542034 8.28939233
Ar 7.95586933 7.24848818 2.97162906
Ar 8.71529943 0.83552550 3.82839821
Ar 6.38772810 5.05193887 6.81529356
Ar 6.81315690 9.47112969 2.93399201
Ar 7.37647829 3.73468987 4.60056165
Ar 6.94274162 3.35015446 1.62376068
Ar 0.17953786 2.40302930 3.42762765
Ar 2.56173474 8.42209089 9.79221595
Ar 6.75079778 9.39032362 1.11891445
Ar 1.03345201 6.61157126 7.22819341
Ar 9.17688776 3.17308886 8.26441861
Ar 6.87023208 8.22331456 8.17621317
Ar 1.79062939 2.40098902 8.19655676
Ar 7.92734608 2.00849793 8.80098714
100
Step 60
Ar 5.31261261 8.40200464 9.88692795
Ar 3.24809649 0.79128292 9.83148478
Ar 3.87336393 3.97881180 8.02466543
Ar 3.97526753 0.89096042 9.02190904
Ar 7.44733879 4.79970670 8.48463692
Ar 9.06426688 5.20203479 6.49142238
Ar 5.72366623 8.57058444 2.60879009
Ar 8.84841405 8.21511566 7.31562177
Ar 9.70259616 0.44813891 7.96199259
Ar 9.54259293 8.67281710 2.27804450
Ar 0.92682917 3.61577710 6.46001365
Ar 5.68787526 8.80366440 6.48280585
Ar 6.37238594 9.31027837 2.99758905
Ar 2.26910600 0.14765850 6.65260052
Ar 6.84189384 5.18759293 1.49554919
Ar 9.66720494 7.61223420 3.29568528
Ar 8.80730309 8.98413253 3.79936869
Ar 9.71822629 4.48547121 7.62369787
Ar 2.26216338 5.41940529 6.48607341
Ar 3.24635191 4.65876088 6.26023523
Ar 0.52751901 4.81544984 9.22919333
Ar 1.00011223 9.24470524 5.68337567
Ar 3.78501400 0.96778371 8.33440284
Ar 2.82942918 8.20235320 9.72646825
Ar 8.84737981 9.56991603 8.68350406
Ar 8.25525978 1.79589927 8.84702151
Ar 7.32848416 9.76708829 2.80033593
Ar 5.31080972 3.99820625 5.16973312
Ar 1.39371370 1.15962269 6.01153032
Ar 3.87170577 2.37500420 1.02461047
Ar 8.33552489 1.78582343 4.11832733
Ar 9.07526970 1.52195191 6.07722950
Ar 2.06408224 5.28089778 5.53536059
Ar 4.49640869 7.41623016 0.78524634
Ar 4.56780667 3.64145745 2.27862152
Ar 3.97385798 0.09540697 9.00795388
Ar 4.37962108 3.18143675 3.45385050
Ar 4.03713484 1.76722425 2.92485296
Ar 6.94843553 8.54289551 7.39605581
Ar 9.04114129 1.77840400 1.05472499
Ar 4.34398981 9.38816034 8.53239412
Ar 7.69487944 9.25350146 8.39413000
Ar 0.64456756 0.88732533 0.06487939
Ar 1.57944489 3.95102215 6.16150856
Ar 6.47337862 3.23910516 5.05072879
Ar 5.67757751 7.74387676 0.03709115
Ar 5.38040526 8.37668765 4.81305837
Ar 1.28488272 0.39415744 9.65855652
Ar 4.24670057 4.12495216 6.21101221
Ar 6.17561981 6.62966707 1.84781396
Ar 2.84771822 9.67365905 8.91942185
Ar 3.02739312 3.91223260 4.85347156
Ar 2.03317507 7.24181222 3.71787695
Ar 4.19043134 3.37879306 7.82769013
Ar 7.90926945 0.22416536 9.04210512
Ar 7.80886047 4.72767649 4.34107679
Ar 3.93724459 5.21302416 9.15489079
Ar 7.93991252 6.19871058 7.53917194
Ar 5.59537586 4.80147992 9.03581649
Ar 0.94812847 3.12723689 1.50442766
Ar 6.70536478 5.65269039 9.47102795
Ar 0.61882063 0.60930403 5.67142517
Ar 5.41299517 7.43467157 6.22018279
Ar 5.40502607 8.31864326 7.64837710
Ar 7.27640368 7.11601693 9.16173295
Ar 6.78370607 6.13575271 0.26727984
Ar 8.49912731 6.85044591 2.12537416
Ar 0.77809631 3.62548191 4.57588426
Ar 4.65665556 3.32352068 3.37254464
Ar 1.34254370 9.11649046 7.11998245
Ar 6.97285288 5.80666462 8.14216543
Ar 1.04782312 1.66608366 4.93722332
Ar 6.62484416 4.07840063 7.67503869
Ar 6.08440234 1.99322845 6.93121290
Ar 5.93833465 2.11540967 4.18743254
Ar 8.26798470 8.42859252 5.81173205
Ar 1.11614444 9.15148721 7.99960598
Ar 9.50995728 5.92654013 9.31628287
Ar 1.40957742 1.25275687 3.26368620
Ar 4.69440241 0.91686245 8.97859125
Ar 4.42824812 0.46401658 8.91374627
Ar 3.48853514 3.06525206 9.34106811
Ar 8.32471357 2.56795863 4.59230332
Ar 3.64288979 4.00177143 5.88316171
Ar 5.55500601 3.24523009 5.53782780
Ar 5.01399929 6.68498002 8.25716056
Ar 7.95814599 7.27207588 2.98603718
Ar 8.48283073 0.79978444 3.65767269
Ar 7.05108469 9.17310682 5.58417837
Ar 6.10227088 1.88252872 7.11608568
Ar 7.58680123 3.44626579 6.93120803
Ar 6.94733816 3.34554506 1.63478740
Ar 0.17336475 2.40375781 3.42076388
Ar 2.57663868 8.42812137 9.80278160
Ar 6.77943385 9.35345872 1.05148640
Ar 1.03598687 6.60260027 7.21491391
Ar 7.66215641 5.56300180 6.59051049
Ar 6.86512125 8.20137062 8.31298203
Ar 2.40319236 1.94823714 0.33932305
Ar 7.91323176 2.00272634 8.79776149
100
Step 70
Ar 6.48388413 2.42731583 3.31040279
Ar 3.29472196 0.78929897 9.84412230
Ar 1.27296225 5.70812091 4.40649781
Ar 7.56321423 4.48050998 9.60640015
Ar 7.31393173 5.13394611 9.57922581
Ar 5.65518686 4.48863712 7.44861102
Ar 5.70346904 8.57555955 2.58145153
Ar 0.07996359 6.91610252 7.13597461
Ar 8.15659436 6.92789057 5.33108668
Ar 9.31696575 4.28001298 9.85056353
Ar 1.13490647 8.84424524 9.80479220
Ar 5.45175820 6.89824357 6.04601511
Ar 0.74276710 3.21973921 0.97525523
Ar 5.74374641 8.73551981 5.65861507
Ar 3.35604892 7.05667751 3.43961351
Ar 9.47809243 7.63554149 3.39185005
Ar 8.83103134 8.53219980 4.35372101
Ar 2.03091550 9.28238452 2.65871350
Ar 8.48816771 8.25656809 7.55752042
Ar 8.17241729 5.46080479 8.78121794
Ar 8.79999113 5.98603259 6.05443704
Ar 1.03585134 9.18629707 5.59918006
Ar 3.84149394 1.18024582 8.33077108
Ar 2.28548621 4.34103047 1.86673476
Ar 4.65498011 9.63849267 1.97842889
Ar 6.73482380 6.85591305 8.46653774
Ar 5.00979488 9.68254774 1.72182555
Ar 9.72899004 6.37761044 0.12694463
Ar 4.77917216 1.11250632 4.36804155
Ar 9.34734029 5.78003231 0.69627710
Ar 7.96286192 2.28694060 4.17503617
Ar 4.64230156 0.80973482 9.02955246
Ar 8.85345509 6.46283426 3.63075167
Ar 2.01761620 9.55519040 2.85244040
Ar 0.29628073 3.26446257 5.77587471
Ar 4.50075369 2.97408019 9.02813268
Ar 8.64771453 1.57706333 8.20066844
Ar 4.20236121 1.84160441 3.01085249
Ar 2.27932261 9.77696791 3.97896326
Ar 9.47485013 2.41117435 0.80738481
Ar 5.95561705 0.51590850 7.63168413
Ar 7.63373584 9.22590186 8.40108203
Ar 0.67225898 1.03585907 0.08215476
Ar 3.16473389 9.41157126 1.72634411
Ar 9.77352569 3.57696005 5.42938954
Ar 5.35870028 1.44635419 7.70067733
Ar 5.35473365 8.37294902 4.78751754
Ar 5.86912378 7.67884288 8.77121507
Ar 8.70550839 7.61371067 9.38424322
Ar 0.73533716 3.95680655 7.96014753
Ar 4.14529204 9.53455045 5.84282296
Ar 8.36895724 4.69662742 6.08284362
Ar 2.09756812 0.08387746 5.02954604
Ar 3.57584018 3.21181236 5.85083671
Ar 7.72039798 3.97522652 8.71927631
Ar 0.81730177 7.97081973 8.54626614
Ar 3.21694430 8.44379827 6.41404744
Ar 2.47675418 1.59637569 8.06615347
Ar 5.09051291 0.72007556 4.64372479
Ar 1.83997948 3.81254769 1.46382248
Ar 6.67716937 5.73433462 9.50530818
Ar 4.69809809 2.40437223 8.97700060
Ar 8.47444641 6.33819903 2.75549141
Ar 5.49325386 4.96762877 8.57711524
Ar 7.24829977 7.17637126 9.23936317
Ar 5.49749375 1.76580322 1.62726060
Ar 8.52685017 6.84974302 2.11901767
Ar 3.26744880 6.09881293 1.75343557
Ar 3.40522430 4.28184636 1.51831688
Ar 3.95514755 9.15780194 5.81687476
Ar 9.89516398 7.96032299 6.42450092
Ar 9.12188604 6.05130709 7.54749715
Ar 6.64470369 3.37785408 7.83407711
Ar 1.07112988 1.31010183 9.43215356
Ar 6.21442717 2.42659172 4.03589286
Ar 0.73302124 3.70284163 0.45926145
Ar 1.79706118 9.10493888 8.28410801
Ar 7.27108978 3.84815414 8.05423104
Ar 7.99963993 4.76937947 5.54215773
Ar 8.83682127 1.99300407 9.98833341
Ar 4.71404619 0.80915592 6.84523328
Ar 7.74154476 5.02451188 3.33248845
Ar 5.01214634 0.13072752 9.02259180
Ar 0.71510182 7.33357360 9.34434804
Ar 0.77616512 3.40335843 6.72427485
Ar 5.07449275 6.60633516 8.22343597
Ar 7.96064675 7.29537455 3.00080075
Ar 8.23497786 0.70356349 3.44346805
Ar 7.72765048 3.29051130 4.35229016
Ar 3.69455647 4.85445218 7.31338968
Ar 8.07228973 2.79980909 1.61309375
Ar 6.96153041 3.34148282 1.65094779
Ar 9.45412695 2.53832872 3.17894803
Ar 8.30403572 7.67806566 8.32481024
Ar 8.22054049 7.62221015 2.07744370
Ar 2.01162408 7.08763085 6.93789790
Ar 6.01808385 7.91110993 4.78133189
Ar 8.33562952 7.88817661 7.97485411
Ar 4.09411163 4.61300278 4.01618561
Ar 1.45779154 5.51202600 1.29784026
100
Step 80
Ar 7.37887440 4.07888223 6.31423273
Ar 7.84620909 1.09400061 4.55459576
Ar 3.84971496 4.85929019 8.36103176
Ar 1.49951118 7.23554762 3.39478617
Ar 7.16508040 5.49929804 0.68743372
Ar 5.48795286 6.49970527 7.24926378
Ar 5.53870436 5.07872004 3.78808525
Ar 1.12402468 5.24329747 5.48988132
Ar 6.02561621 3.78419992 4.19431174
Ar 1.32257103 4.74840303 6.18073310
Ar 1.38786977 3.95129317 3.34933637
Ar 5.78313173 2.84637388 3.53392904
Ar 7.22368348 3.38436101 2.58516364
Ar 4.96430365 6.08208290 3.34785207
Ar 8.92690073 8.52288443 5.66387112
Ar 4.97426511 1.65392615 3.07352534
Ar 7.61182282 8.50344590 1.78662385
Ar 0.53845440 3.83128049 1.62477028
Ar 4.89512205 1.60106901 8.31385319
Ar 8.04916788 4.75043338 2.26036026
Ar 8.45486969 5.62095965 8.20953142
Ar 1.07166877 9.12817453 5.51394085
Ar 4.68142045 3.29063402 7.99532945
Ar 0.55081430 5.01595839 1.16264239
Ar 3.13155958 4.39764214 0.27163138
Ar 1.95175991 3.16222010 7.09808385
Ar 5.78152881 2.20908936 4.53458270
Ar 4.13531669 8.79011551 5.08039909
Ar 9.31887162 1.52631306 8.94718249
Ar 7.58508739 6.91572855 7.78907386